// mousse: CFD toolbox

FoamFile
{
  version     2.0;
  format      ascii;
  class       volScalarField;
  object      T;
}

Tinlet          1;
dimensions      [0 0 0 0 0 0 0];  // T can represent any scalar
                 // with any dimensional units
internalField   uniform 0;

boundaryField
{
  inlet
  {
    type            fixedValue;
    value           uniform $Tinlet;
  }
  ".*"
  {
    type            zeroGradient;
  }
  #includeEtc "case_dicts/setConstraintTypes"
}

// vim: set ft=foam et sw=2 ts=2 sts=2:
